21
	Energy:     -21.6703113
C         -5.60251        3.06768       -0.04786
C         -4.36043        2.20107       -0.15521
H         -6.49733        2.54607       -0.40202
H         -5.48039        3.97779       -0.64407
H         -5.77538        3.36745        0.99088
C         -4.59495        0.76520        0.28014
H         -3.56070        2.62587        0.46196
H         -4.01913        2.19028       -1.19676
O         -5.63052        0.37187        0.80009
N         -3.50449       -0.04079        0.01813
C         -3.43908       -1.45113        0.38764
H         -2.63455        0.42445       -0.20754
C         -4.53635       -2.27958       -0.28289
H         -5.51179       -2.08380        0.17359
H         -4.34307       -3.35254       -0.17722
H         -4.61695       -2.04755       -1.35026
C         -2.06633       -2.01004        0.01347
H         -3.56270       -1.50960        1.47546
H         -1.97965       -3.06582        0.29009
H         -1.27010       -1.46079        0.52785
H         -1.88404       -1.92188       -1.06380
