test.lammps_data (written by ASE) 

6864 	 atoms 
4  atom types
0.0                      60  xlo xhi
0.0                      45  ylo yhi
0.0                     120  zlo zhi


Atoms 

     1   2      57.809000000000005      43.655999999999999                 100.886
     2   1      57.515000000000001      43.925000000000004                 101.881
     3   1      58.530999999999999      43.417999999999999      103.04299999999999
     4   2      56.536000000000001                  43.448                 101.953
     5   2      57.357999999999997    0.010999999999999999      101.94800000000001
     6   1      59.685000000000002      44.055999999999997                  102.34
     7   4                   0.112      43.557000000000002      101.33800000000001
     8   3      58.603000000000002      41.898000000000003                 102.617
     9   1      58.535000000000004      40.842999999999996                 103.736
    10   1      59.874000000000002      40.448999999999998                 104.511
    11   1                  57.878      39.490000000000002      103.34599999999999
    12   2      57.710999999999999      41.206000000000003      104.30500000000001
    13   2     0.67700000000000005                  40.308                 103.751
    14   2      59.765999999999998      39.559999999999995                   105.2
    15   2     0.19400000000000001      41.031999999999996                 105.443
    16   2      58.421999999999997      39.000999999999998      102.54600000000001
    17   2                   56.82      39.600999999999999                 103.113
    18   2      57.881999999999998                  38.811                 104.209
    19   2     0.23000000000000001      44.777000000000001                 102.792
    20   2      59.305000000000007                  41.686      101.83800000000001
    21   1                  58.244                  43.948      104.69600000000001
    22   1      58.911000000000001      43.524999999999999                 106.291
    23   2      57.159999999999997      43.845999999999997                 104.735
    24   2      58.400000000000006    0.032000000000000001                  104.73
    25   1     0.33100000000000002                  43.442                 105.791
    26   4                    0.75      43.338999999999999                 104.614
    27   3      58.222999999999999      42.201999999999998                 106.262
    28   1      57.451999999999998      41.414999999999999                  107.23
    29   1      58.484000000000002                  40.323                 107.633
    30   1      56.066000000000003      40.795000000000002                 106.926
    31   2      57.138000000000005                   42.25      107.77100000000002
    32   2      58.384999999999998      39.459999999999994                 107.012
    33   2      58.262999999999998      39.793999999999997                  108.47
    34   2      59.531999999999996      40.624000000000002                 107.521
    35   2      56.137999999999998      40.025999999999996                 106.181
    36   2      55.324000000000005      41.554000000000002      106.68000000000001
    37   2      55.656999999999996      40.280999999999999      107.77699999999999
    38   2      1.0509999999999999      43.414999999999999                 106.471
    39   2      58.616999999999997      41.637999999999998      105.48299999999999
    40   1      58.804000000000002      44.137999999999998      108.04300000000001
    41   1                  59.128      43.582999999999998      109.77799999999999
    42   2      57.762999999999998      44.463000000000001      108.05500000000001
    43   2                  59.366    0.073999999999999996                 108.053
    44   1     0.54900000000000004      43.286999999999999                 109.736
    45   4                   1.012      42.609999999999999                 108.819
    46   3      58.363999999999997                  42.302                 109.715
    47   1      57.823999999999998      41.356000000000002                 110.678
    48   1      59.039000000000001      40.440000000000005                 111.017
    49   1      56.487000000000002      40.607999999999997      110.41499999999999
    50   2      57.448999999999998      42.152999999999999      111.23099999999999
    51   2      59.213999999999999      39.648000000000003                 110.322
    52   2      58.850999999999999      39.850999999999999      111.86200000000001
    53   2      59.984999999999999      40.981000000000002                 111.045
    54   2                  56.567      39.817999999999998                 109.691
    55   2      55.694000000000003      41.311999999999998      110.16200000000001
    56   2      56.117000000000004      40.083999999999996      111.26299999999999
    57   2      1.1739999999999999      43.704999999999998                 110.399
    58   2      58.786000000000001      41.780000000000001                 108.931
    59   1      58.951000000000001                  44.189      111.52699999999999
    60   1      59.310000000000002      43.636000000000003                 113.267
    61   2      57.887999999999998      44.441000000000003      111.53099999999999
    62   2                  59.445     0.16200000000000001      111.53099999999999
    63   1                   0.752      43.430999999999997      113.28200000000001
    64   4                   1.284      42.755000000000003                 112.393
    65   3                  58.628      42.309999999999995      113.17800000000001
    66   1      58.198999999999998                  41.308      114.14200000000001
    67   1      59.483999999999995      40.493000000000002      114.46799999999999
    68   1      56.956000000000003      40.417999999999999      113.88800000000001
    69   2      57.745000000000005      42.055999999999997                 114.702
    70   2      59.737000000000002                  39.741                  113.75
    71   2      59.328000000000003      39.886000000000003      115.31399999999999
    72   2                   0.373      41.114999999999995                 114.541
    73   2      57.146999999999998      39.646999999999998                 113.167
    74   2      56.088000000000001      41.025999999999996      113.63199999999999
    75   2      56.649000000000001      39.853999999999999                 114.738
    76   2                   1.329      43.928000000000004      113.93299999999999
    77   2      59.082999999999998      41.826999999999998      112.38800000000001
    78   1      59.079000000000001      44.214999999999996                 115.012
    79   1      59.490000000000002      43.682000000000002                 116.748
    80   2      57.997999999999998      44.365000000000002                 115.015
    81   2      59.479999999999997     0.23000000000000001      115.01600000000001
    82   1     0.94699999999999995      43.567999999999998      116.77500000000001
    83   4      1.5309999999999997      42.926000000000002      115.89400000000001
    84   3      58.892000000000003      42.314999999999998      116.64999999999999
    85   1      58.530000000000001      41.281999999999996                 117.613
    86   1      59.861000000000004      40.548999999999999      117.93600000000001
    87   1      57.367000000000004      40.288999999999994      117.35900000000001
    88   2                  58.012      41.988999999999997      118.17400000000001
    89   2                   0.159      39.814999999999998                 117.211
    90   2      59.720999999999997      39.933999999999997      118.78099999999999
    91   2     0.71499999999999997      41.216000000000001      118.02000000000001
    92   2                  57.634      39.536000000000001                  116.64
    93   2      56.449999999999996                  40.817      117.10300000000001
    94   2      57.101999999999997      39.700000000000003      118.20700000000001
    95   2                   1.494      44.102000000000004                 117.422
    96   2      59.379000000000005                  41.869                  115.86
    97   1      59.223999999999997      44.236000000000004      118.49000000000001
    98   1      59.659999999999997      43.716000000000001                   0.224
    99   2      58.135999999999996      44.322000000000003      118.49299999999999
   100   2      59.563000000000002     0.27300000000000002                 118.494
   101   1      1.1200000000000001      43.649999999999999                   0.254
   102   4                   1.728      43.032000000000004                 119.375
   103   3      59.101999999999997      42.332000000000001                   0.122
   104   1      58.768000000000001      41.286999999999999                   1.083
   105   1                   0.122      40.597999999999999      1.4039999999999999
   106   1      57.647999999999996      40.249000000000002     0.82699999999999996
   107   2      58.222000000000001      41.975000000000001      1.6439999999999999
   108   2     0.46600000000000003      39.884999999999998     0.67900000000000005
   109   2                  59.991      39.973999999999997      2.2469999999999999
   110   2     0.94500000000000006      41.300000000000004      1.4950000000000001
   111   2      57.961999999999996      39.512999999999998                   0.108
   112   2      56.713999999999999      40.746000000000002     0.57099999999999995
   113   2      57.389000000000003      39.655000000000001                   1.675
   114   2      1.6539999999999999      44.198999999999998     0.89999999999999991
   115   2      59.602999999999994      41.899999999999999                 119.331
   116   1                  59.381      44.259999999999998      1.9639999999999997
   117   1      59.814999999999998      43.731000000000002                   3.694
   118   2      58.294000000000004      44.353999999999999      1.9650000000000001
   119   2      59.730000000000004     0.29399999999999998                   1.966
   120   1      1.2749999999999999      43.695999999999998      3.7269999999999994
   121   4      1.8999999999999997      43.096000000000004      2.8490000000000002
   122   3      59.273000000000003      42.345999999999997      3.5920000000000001
   123   1      58.943000000000005      41.297999999999995      4.5510000000000002
   124   1                   0.308      40.629999999999995      4.8719999999999999
   125   1      57.841000000000001      40.244999999999997      4.2939999999999996
   126   2      58.382999999999996      41.978000000000002      5.1120000000000001
   127   2     0.66000000000000003      39.922999999999995      4.1470000000000002
   128   2                   0.187      40.006999999999998      5.7130000000000001
   129   2                   1.119      41.342999999999996      4.9610000000000003
   130   2                  58.177      39.517000000000003      3.5750000000000002
   131   2      56.898000000000003      40.722999999999999      4.0359999999999996
   132   2      57.592999999999996      39.646999999999998                   5.141
   133   2                   1.796      44.256999999999998      4.3710000000000004
   134   2      59.777999999999999      41.918999999999997                   2.802
   135   1      59.515000000000001      44.249000000000002                   5.431
   136   1      59.954000000000001      43.709000000000003      7.1589999999999998
   137   2      58.426000000000002                  44.314      5.4329999999999998
   138   2      59.835000000000001     0.29299999999999998      5.4340000000000002
   139   1      1.4139999999999999      43.716999999999999      7.1909999999999998
   140   4      2.0609999999999999      43.135999999999996      6.3159999999999998
   141   3      59.486000000000004      42.292000000000002      7.0590000000000002
   142   1      59.158000000000001      41.236999999999995      8.0169999999999995
   143   1     0.52000000000000002      40.558999999999997      8.3350000000000009
   144   1      58.055999999999997      40.185000000000002      7.7569999999999997
   145   2      58.588999999999999      41.907999999999994      8.5739999999999998
   146   2     0.86299999999999999      39.841999999999999      7.6109999999999998
   147   2     0.39400000000000002                  39.936      9.1750000000000007
   148   2                   1.339      41.268999999999998      8.4239999999999995
   149   2      58.390000000000001      39.456000000000003      7.0369999999999999
   150   2      57.114999999999995      40.665999999999997      7.4989999999999997
   151   2      57.804000000000002      39.588000000000001      8.6039999999999992
   152   2                   1.917      44.294000000000004      7.8319999999999999
   153   2    0.010999999999999999                  41.884      6.2679999999999998
   154   1                  59.628      44.211999999999996      8.8940000000000001
   155   1    0.071999999999999995      43.679000000000002      10.619999999999999
   156   2      58.536999999999999      44.238999999999997      8.8969999999999985
   157   2      59.915000000000006     0.26500000000000001      8.8989999999999991
   158   1      1.5289999999999999      43.710000000000001                  10.654
   159   4      2.1819999999999999      43.135999999999996      9.7780000000000005
   160   3                  59.631      42.248999999999995      10.518000000000001
   161   1      59.305000000000007      41.188000000000002                  11.475
   162   1     0.66800000000000004      40.515999999999998      11.797000000000001
   163   1      58.215999999999994                  40.119      11.217000000000001
   164   2      58.725999999999999      41.849999999999994                  12.032
   165   2      1.0129999999999999      39.798000000000002      11.074999999999999
   166   2     0.55000000000000004      39.886000000000003                  12.637
   167   2      1.4830000000000001      41.230000000000004      11.885999999999999
   168   2      58.561999999999998      39.393000000000001                    10.5
   169   2      57.265000000000001      40.583999999999996      10.960000000000001
   170   2      57.974000000000004      39.515000000000001      12.061999999999999
   171   2      2.0209999999999999      44.294000000000004      11.295999999999999
   172   2                   0.155      41.849000000000004      9.7240000000000002
   173   1      59.737000000000002      44.183999999999997                  12.355
   174   1     0.20499999999999999      43.679000000000002                  14.081
   175   2      58.646000000000001      44.167000000000002      12.357999999999999
   176   2      59.978999999999999     0.24800000000000003                  12.359
   177   1      1.6639999999999999      43.728000000000002      14.114999999999998
   178   4      2.3170000000000002      43.152000000000001                   13.24
   179   3                  59.753      42.259999999999998      13.976000000000001
   180   1      59.481999999999999      41.195999999999998      14.933999999999999
   181   1     0.88500000000000001      40.606999999999999      15.252999999999998
   182   1      58.427999999999997      40.095999999999997      14.673999999999999
   183   2      58.890000000000001      41.849000000000004      15.489999999999998
   184   2                   1.276      39.922000000000004                  14.529
   185   2     0.81499999999999995      39.972000000000001                  16.093
   186   2                   1.655      41.366999999999997      15.345999999999998
   187   2      58.790999999999997                  39.381      13.957000000000001
   188   2      57.463000000000001      40.530999999999999      14.415999999999999
   189   2      58.212999999999994      39.485999999999997                   15.52
   190   2      2.1479999999999997                   44.32                  14.757
   191   2     0.28100000000000003                  41.863      13.186999999999999
   192   1      59.872999999999998      44.175000000000004                  15.814
   193   1     0.35899999999999999      43.668999999999997                  17.538
   194   2      58.782000000000004      44.152000000000001                  15.815
   195   2                    0.11     0.24099999999999999      15.816000000000001
   196   1      1.8149999999999999      43.795999999999999                   17.57
   197   4                     2.5      43.254000000000005      16.695999999999998
   198   3      59.997999999999998      42.222999999999999                  17.436
   199   1      59.790000000000006      41.137999999999998      18.388999999999999
   200   1      1.2190000000000001      40.606999999999999      18.708999999999996
   201   1      58.772000000000006      40.003999999999998      18.129000000000001
   202   2      59.170000000000002                  41.762                  18.945
   203   2      1.6259999999999999      39.929000000000002      17.986000000000001
   204   2      1.1930000000000001      39.972000000000001      19.547999999999998
   205   2      1.9589999999999999      41.397999999999996      18.795999999999999
   206   2      59.148000000000003      39.295000000000002      17.414000000000001
   207   2      57.793000000000006      40.408000000000001      17.870999999999995
   208   2      58.585000000000001      39.384999999999998      18.972999999999999
   209   2      2.2639999999999998      44.417999999999999                  18.209
   210   2     0.55300000000000005                  41.863      16.646000000000001
   211   1      59.997999999999998                  44.137      19.268999999999998
   212   1     0.50600000000000001      43.646999999999998      20.992000000000001
   213   2      58.909999999999997      44.060000000000002                   19.27
   214   2                   0.182     0.21299999999999999      19.271000000000001
   215   1                   1.948                  43.869      21.021999999999998
   216   4      2.6680000000000001      43.369999999999997                  20.148
   217   3     0.24700000000000003      42.170000000000002      20.888000000000002
   218   1     0.13600000000000001                  41.064      21.841000000000001
   219   1                   1.603      40.652999999999999      22.164000000000001
   220   1      59.229999999999997      39.831000000000003      21.582000000000001
   221   2      59.461999999999996      41.628999999999998      22.396000000000001
   222   2      2.0659999999999998                  40.012                  21.439
   223   2                   1.627      40.015999999999998      23.004999999999999
   224   2      2.2749999999999999      41.502000000000002      22.254000000000001
   225   2      59.658000000000001      39.149999999999999      20.867999999999999
   226   2      58.215999999999994      40.136000000000003      21.324000000000002
   227   2      59.104999999999997      39.193999999999996      22.425999999999998
   228   2      2.3540000000000001      44.518999999999998                  21.663
   229   2     0.82399999999999995      41.853000000000002      20.097000000000001
   230   1                   0.106      44.097999999999999      22.722000000000001
   231   1     0.64900000000000002      43.668999999999997      24.443000000000001
   232   2      59.030000000000001      43.923999999999999      22.722999999999999
   233   2     0.19700000000000001     0.18500000000000003                  22.724
   234   1      2.0699999999999998      43.989999999999995      24.478000000000002
   235   4      2.8220000000000001      43.536999999999999      23.603999999999999
   236   3     0.48899999999999993      42.180999999999997                   24.34
   237   1     0.45900000000000002      41.075000000000003      25.293999999999997
   238   1      1.9530000000000001      40.773000000000003      25.614000000000001
   239   1                  59.637      39.783999999999999      25.033999999999999
   240   2      59.752000000000002      41.596000000000004      25.847999999999999
   241   2                   2.464      40.170999999999999      24.891999999999999
   242   2      2.0279999999999996      40.137999999999998      26.452999999999996
   243   2      2.5600000000000001      41.670999999999999      25.704999999999998
   244   2                   0.115      39.139000000000003                   24.32
   245   2      58.606000000000002      40.024000000000001      24.774999999999999
   246   2                  59.552      39.140000000000001      25.876999999999999
   247   2                   2.427      44.673000000000002                  25.116
   248   2      1.0880000000000001      41.905000000000001      23.550999999999998
   249   1                   0.216      44.109999999999999      26.171999999999997
   250   1     0.79700000000000004      43.745000000000005      27.893999999999998
   251   2      59.156999999999996      43.850000000000001      26.175000000000001
   252   2                   0.219     0.20000000000000001      26.175999999999998
   253   1      2.1899999999999999      44.170999999999999                  27.927
   254   4      2.9750000000000001      43.771999999999998      27.056000000000001
   255   3     0.74199999999999999      42.253999999999998                  27.791
   256   1     0.79800000000000004      41.152999999999999                  28.744
   257   1      2.3130000000000002      40.979999999999997                  29.064
   258   1                   0.063                  39.814      28.484999999999999
   259   2    0.059999999999999998                  41.628      29.298999999999999
   260   2      2.8690000000000002      40.423999999999999      28.341000000000001
   261   2                   2.448      40.359000000000002                  29.904
   262   2      2.8420000000000001      41.926000000000002                  29.154
   263   2     0.57699999999999996      39.201000000000001                   27.77
   264   2      59.018000000000001      39.987000000000002      28.225999999999999
   265   2    0.021999999999999999      39.167000000000002      29.329000000000001
   266   2      2.4929999999999999      44.881999999999998      28.565999999999999
   267   2                   1.359      42.021000000000001      27.001000000000001
   268   1     0.33500000000000002      44.155999999999999      29.623000000000001
   269   1     0.94799999999999984      43.845999999999997      31.344999999999999
   270   2      59.299999999999997      43.811999999999998      29.624999999999996
   271   2                   0.248     0.24399999999999999      29.626000000000001
   272   1      2.2999999999999998      44.393000000000001      31.377000000000002
   273   4      3.1159999999999997                  44.064      30.504999999999999
   274   3                   1.026      42.356000000000002      31.240999999999996
   275   1      1.1779999999999999      41.267000000000003                  32.195
   276   1                   2.702      41.222999999999999      32.515000000000001
   277   1     0.54700000000000004      39.877000000000002                  31.936
   278   2     0.40400000000000003      41.680999999999997      32.750999999999998
   279   2      3.3019999999999996      40.712000000000003      31.792999999999996
   280   2      2.8889999999999998                  40.616      33.354999999999997
   281   2      3.1499999999999999      42.209000000000003      32.604999999999997
   282   2                   1.103                  39.302      31.221999999999998
   283   2      59.492000000000004      39.972999999999999      31.677000000000003
   284   2     0.55600000000000005      39.229999999999997      32.780000000000001
   285   2      2.5390000000000001                    0.13      32.014000000000003
   286   2      1.6619999999999999      42.179000000000002      30.450999999999997
   287   1     0.45100000000000001      44.210999999999999                  33.073
   288   1                   1.083      43.942999999999998      34.793999999999997
   289   2                  59.445      43.789000000000001                  33.073
   290   2     0.28100000000000003     0.28900000000000003      33.073999999999998
   291   1                   2.383      44.606000000000002      34.826999999999998
   292   4                   3.222      44.353999999999999      33.954000000000001
   293   3                   1.306      42.467000000000006      34.692999999999998
   294   1                   1.552      41.390000000000001      35.646000000000001
   295   1      3.0739999999999998      41.471000000000004      35.968000000000004
   296   1      1.0580000000000001      39.942999999999998      35.387999999999998
   297   2     0.74099999999999999      41.727999999999994      36.200000000000003
   298   2                   3.714      41.009999999999998                  35.244
   299   2      3.3050000000000002      40.879999999999995      36.808999999999997
   300   2      3.4399999999999999                  42.491                  36.055
   301   2      1.6659999999999999      39.423999999999999      34.671999999999997
   302   2                       0      39.936999999999998      35.128999999999998
   303   2      1.1299999999999999                  39.302      36.232999999999997
   304   2      2.5569999999999999     0.35999999999999999      35.465999999999994
   305   2                   1.958      42.350999999999999      33.902999999999999
   306   1     0.54800000000000004      44.265999999999998      36.518999999999991
   307   1      1.1890000000000001      44.053000000000004                  38.238
   308   2      59.581000000000003      43.761000000000003      36.520000000000003
   309   2     0.28999999999999998     0.32600000000000001      36.521000000000001
   310   1      2.4380000000000002      44.808999999999997      38.274000000000001
   311   4                   3.298      44.612000000000002      37.402999999999999
   312   3                   1.526      42.594000000000001      38.142000000000003
   313   1                   1.853      41.541999999999994      39.097999999999999
   314   1      3.3609999999999998      41.746000000000002      39.424999999999997
   315   1      1.4990000000000001                  40.052      38.841999999999999
   316   2      1.0149999999999997      41.805999999999997      39.651000000000003
   317   2      4.0380000000000003      41.335999999999999      38.701000000000001
   318   2      3.6379999999999999                   41.18      40.271999999999998
   319   2      3.6440000000000001      42.792000000000002      39.503999999999998
   320   2                   2.157      39.594999999999999      38.127000000000002
   321   2     0.44700000000000001                  39.942      38.584000000000003
   322   2      1.6299999999999999      39.418999999999997                  39.689
   323   2      2.5569999999999999     0.57099999999999995      38.911000000000001
   324   2      2.1869999999999998      42.528000000000006      37.354999999999997
   325   1     0.61599999999999999      44.346000000000004      39.960999999999999
   326   1                   1.254      44.208000000000006      41.677999999999997
   327   2      59.700000000000003      43.755000000000003      39.960999999999999
   328   2     0.26500000000000001     0.38000000000000006      39.962000000000003
   329   1      2.4609999999999999    0.032000000000000001      41.722999999999999
   330   4      3.3290000000000002      44.893999999999998      40.850999999999999
   331   3      1.6850000000000001      42.774000000000001      41.594999999999999
   332   1      2.0859999999999999      41.753999999999998                  42.558
   333   1                   3.573                  42.058      42.902000000000001
   334   1                   1.849      40.243000000000002      42.304000000000002
   335   2      1.2250000000000001      41.950000000000003      43.107999999999997
   336   2      4.2750000000000004      41.689999999999998      42.176000000000002
   337   2      3.8860000000000001      41.530999999999999                  43.762
   338   2      3.7909999999999995                  43.116      42.962000000000003
   339   2      2.5409999999999999      39.844000000000001      41.587000000000003
   340   2     0.80899999999999994      40.048999999999999      42.045000000000002
   341   2      2.0289999999999999                  39.622      43.152000000000001
   342   2      2.5449999999999999     0.79700000000000004      42.362000000000002
   343   2      2.3490000000000002      42.747999999999998      40.805999999999997
   344   1                   0.629      44.478999999999999      43.389000000000003
   345   1      1.2390000000000001      44.391000000000005      45.095999999999997
   346   2                   59.75      43.832000000000001                  43.387
   347   2                   0.215     0.48799999999999999                  43.387
   348   1      2.4809999999999999     0.16700000000000004      45.170999999999999
   349   4      3.3460000000000001    0.014999999999999999      44.305999999999997
   350   3                   1.696      42.969000000000001                  45.052
   351   1      2.1829999999999998      42.007000000000005      46.027000000000001
   352   1      3.6190000000000002      42.438000000000002                  46.448
   353   1      2.0790000000000002      40.478999999999999      45.771999999999991
   354   2                   1.296      42.146000000000001      46.554000000000002
   355   2      4.3730000000000002                  42.256      45.703000000000003
   356   2      3.9510000000000005                  41.866      47.299999999999997
   357   2      3.6880000000000002      43.495000000000005      46.673999999999999
   358   2      2.8050000000000002      40.147999999999996      45.052999999999997
   359   2      1.0589999999999999      40.192999999999998                  45.512